/*--------------------------------*- C++ -*----------------------------------*\
  =========                 |
  \\      /  F ield         | OpenFOAM: The Open Source CFD Toolbox
   \\    /   O peration     | Website:  https://openfoam.org
    \\  /    A nd           | Version:  7
     \\/     M anipulation  |
\*---------------------------------------------------------------------------*/
FoamFile
{
    version     2.0;
    format      ascii;
    class       volScalarField;
    location    "0";
    object      Cx;
}
// * * * * * * * * * * * * * * * * * * * * * * * * * * * * * * * * * * * * * //

dimensions      [0 1 0 0 0 0 0];

internalField   nonuniform List<scalar> 
880
(
2e-05
6e-05
0.0001
0.00014
0.00018
0.00022
0.00026
0.0003
0.00034
0.00038
0.00042
0.00046
0.0005
0.00054
0.00058
0.00062
0.00066
0.0007
0.00074
0.00078
0.00082
0.00086
0.0009
0.00094
0.00098
0.00102
0.00106
0.0011
0.00114
0.00118
0.00122
0.00126
0.0013
0.00134
0.00138
0.00142
0.00146
0.0015
0.00154
0.00158
0.00162
0.00166
0.0017
0.00174
0.00178
0.00182
0.00186
0.0019
0.00194
0.00198
0.00202
0.00206
0.0021
0.00214
0.00218
0.00222
0.00226
0.0023
0.00234
0.00238
0.00242
0.00246
0.0025
0.00254
0.00258
0.00262
0.00266
0.0027
0.00274
0.00278
0.00282
0.00286
0.0029
0.00294
0.00298
0.00302
0.00306
0.0031
0.00314
0.00318
0.00322
0.00326
0.0033
0.00334
0.00338
0.00342
0.00346
0.0035
0.00354
0.00358
0.00362
0.00366
0.0037
0.00374
0.00378
0.00382
0.00386
0.0039
0.00394
0.00398
0.00402
0.00406
0.0041
0.00414
0.00418
0.00422
0.00426
0.0043
0.00434
0.00438
0.00442
0.00446
0.0045
0.00454
0.00458
0.00462
0.00466
0.0047
0.00474
0.00478
0.00482
0.00486
0.0049
0.00494
0.00498
0.00502
0.00506
0.0051
0.00514
0.00518
0.00522
0.00526
0.0053
0.00534
0.00538
0.00542
0.00546
0.0055
0.00554
0.00558
0.00562
0.00566
0.0057
0.00574
0.00578
0.00582
0.00586
0.0059
0.00594
0.00598
0.00602
0.00606
0.0061
0.00614
0.00618
0.00622
0.00626
0.0063
0.00634
0.00638
0.00642
0.00646
0.0065
0.00654
0.00658
0.00662
0.00666
0.0067
0.00674
0.00678
0.00682
0.00686
0.0069
0.00694
0.00698
0.00702
0.00706
0.0071
0.00714
0.00718
0.00722
0.00726
0.0073
0.00734
0.00738
0.00742
0.00746
0.0075
0.00754
0.00758
0.00762
0.00766
0.0077
0.00774
0.00778
0.00782
0.00786
0.0079
0.00794
0.00798
0.00802
0.00806
0.0081
0.00814
0.00818
0.00822
0.00826
0.0083
0.00834
0.00838
0.00842
0.00846
0.0085
0.00854
0.00858
0.00862
0.00866
0.0087
0.00874
0.00878
0.00882
0.00886
0.0089
0.00894
0.00898
0.00902
0.00906
0.0091
0.00914
0.00918
0.00922
0.00926
0.0093
0.00934
0.00938
0.00942
0.00946
0.0095
0.00954
0.00958
0.00962
0.00966
0.0097
0.00974
0.00978
0.00982
0.00986
0.0099
0.00994
0.00998
0.01002
0.01006
0.0101
0.01014
0.01018
0.01022
0.01026
0.0103
0.01034
0.01038
0.01042
0.01046
0.0105
0.01054
0.01058
0.01062
0.01066
0.0107
0.01074
0.01078
0.01082
0.01086
0.0109
0.01094
0.01098
0.01102
0.01106
0.0111
0.01114
0.01118
0.01122
0.01126
0.0113
0.01134
0.01138
0.01142
0.01146
0.0115
0.01154
0.01158
0.01162
0.01166
0.0117
0.01174
0.01178
0.01182
0.01186
0.0119
0.01194
0.01198
0.01202
0.01206
0.0121
0.01214
0.01218
0.01222
0.01226
0.0123
0.01234
0.01238
0.01242
0.01246
0.0125
0.01254
0.01258
0.01262
0.01266
0.0127
0.01274
0.01278
0.01282
0.01286
0.0129
0.01294
0.01298
0.01302
0.01306
0.0131
0.01314
0.01318
0.01322
0.01326
0.0133
0.01334
0.01338
0.01342
0.01346
0.0135
0.01354
0.01358
0.01362
0.01366
0.0137
0.01374
0.01378
0.01382
0.01386
0.0139
0.01394
0.01398
0.01402
0.01406
0.0141
0.01414
0.01418
0.01422
0.01426
0.0143
0.01434
0.01438
0.01442
0.01446
0.0145
0.01454
0.01458
0.01462
0.01466
0.0147
0.01474
0.01478
0.01482
0.01486
0.0149
0.01494
0.01498
0.01502
0.01506
0.0151
0.01514
0.01518
0.01522
0.01526
0.0153
0.01534
0.01538
0.01542
0.01546
0.0155
0.01554
0.01558
0.01562
0.01566
0.0157
0.01574
0.01578
0.01582
0.01586
0.0159
0.01594
0.01598
0.01602
0.01606
0.0161
0.01614
0.01618
0.01622
0.01626
0.0163
0.01634
0.01638
0.01642
0.01646
0.0165
0.01654
0.01658
0.01662
0.01666
0.0167
0.01674
0.01678
0.01682
0.01686
0.0169
0.01694
0.01698
0.01702
0.01706
0.0171
0.01714
0.01718
0.01722
0.01726
0.0173
0.01734
0.01738
0.01742
0.01746
0.0175
0.01754
0.01758
0.01762
0.01766
0.0177
0.01774
0.01778
0.01782
0.01786
0.0179
0.01794
0.01798
0.01802
0.01806
0.0181
0.01814
0.01818
0.01822
0.01826
0.0183
0.01834
0.01838
0.01842
0.01846
0.0185
0.01854
0.01858
0.01862
0.01866
0.0187
0.01874
0.01878
0.01882
0.01886
0.0189
0.01894
0.01898
0.01902
0.01906
0.0191
0.01914
0.01918
0.01922
0.01926
0.0193
0.01934
0.01938
0.01942
0.01946
0.0195
0.01954
0.01958
0.01962
0.01966
0.0197
0.01974
0.01978
0.01982
0.01986
0.0199
0.01994
0.01998
0.02002
0.02006
0.0201
0.02014
0.02018
0.02022
0.02026
0.0203
0.02034
0.02038
0.02042
0.02046
0.0205
0.02054
0.02058
0.02062
0.02066
0.0207
0.02074
0.02078
0.02082
0.02086
0.0209
0.02094
0.02098
0.02102
0.02106
0.0211
0.02114
0.02118
0.02122
0.02126
0.0213
0.02134
0.02138
0.02142
0.02146
0.0215
0.02154
0.02158
0.02162
0.02166
0.0217
0.02174
0.02178
0.02182
0.02186
0.0219
0.02194
0.02198
0.0220189
0.0220567
0.0220947
0.0221327
0.0221708
0.0222089
0.0222472
0.0222855
0.0223239
0.0223624
0.0224009
0.0224396
0.0224783
0.0225171
0.022556
0.022595
0.0226341
0.0226732
0.0227124
0.0227517
0.0227911
0.0228306
0.0228702
0.0229098
0.0229495
0.0229893
0.0230292
0.0230692
0.0231092
0.0231494
0.0231896
0.0232299
0.0232703
0.0233108
0.0233514
0.023392
0.0234328
0.0234736
0.0235145
0.0235555
0.0235966
0.0236378
0.023679
0.0237204
0.0237618
0.0238033
0.0238449
0.0238866
0.0239284
0.0239703
0.0240122
0.0240543
0.0240964
0.0241386
0.0241809
0.0242233
0.0242658
0.0243084
0.0243511
0.0243939
0.0244367
0.0244797
0.0245227
0.0245658
0.024609
0.0246523
0.0246957
0.0247392
0.0247828
0.0248265
0.0248702
0.0249141
0.024958
0.0250021
0.0250462
0.0250904
0.0251348
0.0251792
0.0252237
0.0252683
0.025313
0.0253578
0.0254027
0.0254476
0.0254927
0.0255379
0.0255832
0.0256285
0.025674
0.0257195
0.0257652
0.0258109
0.0258568
0.0259027
0.0259487
0.0259949
0.0260411
0.0260874
0.0261338
0.0261804
0.026227
0.0262737
0.0263205
0.0263674
0.0264144
0.0264616
0.0265088
0.0265561
0.0266035
0.026651
0.0266986
0.0267463
0.0267942
0.0268421
0.0268901
0.0269382
0.0269864
0.0270347
0.0270832
0.0271317
0.0271803
0.027229
0.0272779
0.0273268
0.0273758
0.027425
0.0274742
0.0275236
0.027573
0.0276226
0.0276722
0.027722
0.0277719
0.0278219
0.0278719
0.0279221
0.0279724
0.0280228
0.0280733
0.0281239
0.0281747
0.0282255
0.0282764
0.0283275
0.0283786
0.0284299
0.0284812
0.0285327
0.0285843
0.028636
0.0286878
0.0287397
0.0287917
0.0288438
0.0288961
0.0289484
0.0290009
0.0290534
0.0291061
0.0291589
0.0292118
0.0292648
0.029318
0.0293712
0.0294245
0.029478
0.0295316
0.0295853
0.0296391
0.029693
0.029747
0.0298012
0.0298554
0.0299098
0.0299643
0.0300189
0.0300736
0.0301284
0.0301834
0.0302384
0.0302936
0.0303489
0.0304043
0.0304598
0.0305155
0.0305712
0.0306271
0.0306831
0.0307392
0.0307955
0.0308518
0.0309083
0.0309649
0.0310216
0.0310784
0.0311354
0.0311925
0.0312496
0.031307
0.0313644
0.0314219
0.0314796
0.0315374
0.0315953
0.0316534
0.0317115
0.0317698
0.0318282
0.0318868
0.0319454
0.0320042
0.0320631
0.0321221
0.0321813
0.0322406
0.0323
0.0323595
0.0324191
0.0324789
0.0325388
0.0325988
0.032659
0.0327193
0.0327797
0.0328402
0.0329009
0.0329617
0.0330226
0.0330837
0.0331448
0.0332062
0.0332676
0.0333292
0.0333909
0.0334527
0.0335146
0.0335767
0.033639
0.0337013
0.0337638
0.0338264
0.0338891
0.033952
0.034015
0.0340782
0.0341415
0.0342049
0.0342684
0.0343321
0.0343959
0.0344598
0.0345239
0.0345881
0.0346525
0.034717
0.0347816
0.0348464
0.0349113
0.0349763
0.0350415
0.0351068
0.0351722
0.0352378
0.0353035
0.0353694
0.0354354
0.0355015
0.0355678
0.0356342
0.0357008
0.0357675
0.0358343
0.0359013
0.0359684
0.0360357
0.0361031
0.0361707
0.0362383
0.0363062
0.0363742
0.0364423
0.0365105
0.0365789
0.0366475
0.0367162
0.036785
0.036854
0.0369231
0.0369924
0.0370618
0.0371314
0.0372011
0.037271
0.037341
0.0374112
0.0374815
0.0375519
0.0376225
0.0376933
0.0377642
0.0378352
0.0379064
0.0379778
0.0380493
0.0381209
0.0381927
0.0382647
0.0383368
0.0384091
0.0384815
0.038554
0.0386268
0.0386996
0.0387726
0.0388458
0.0389192
0.0389926
0.0390663
0.0391401
0.039214
0.0392881
0.0393624
0.0394368
0.0395114
0.0395861
0.039661
0.0397361
0.0398113
0.0398867
0.0399622
)
;

boundaryField
{
    boundary
    {
        type            empty;
    }
    inlet
    {
        type            calculated;
        value           uniform 0;
    }
    outlet
    {
        type            calculated;
        value           uniform 0.04;
    }
}


// ************************************************************************* //
